 Output coordinates in angstroms (scale by  1.889725989 to convert to a.u.)

  No.       Tag          Charge          X              Y              Z
 ---- ---------------- ---------- -------------- -------------- --------------
    1 C                    6.0000    -0.01490766     0.72286270     0.00000000
    2 S                   16.0000    -1.51638036     1.60221976     0.00000000
    3 C                    6.0000    -0.70355539     3.18119546     0.00000000
    4 C                    6.0000     0.69287733     3.00035660     0.00000000
    5 C                    6.0000     1.03163388     1.60028252     0.00000000
    6 C                    6.0000     0.70355539    -3.18119546     0.00000000
    7 C                    6.0000    -0.69287733    -3.00035660     0.00000000
    8 C                    6.0000    -1.03163388    -1.60028252     0.00000000
    9 C                    6.0000     0.01490766    -0.72286270     0.00000000
   10 S                   16.0000     1.51638036    -1.60221976     0.00000000
   11 H                    1.0000    -2.05307361    -1.24734313     0.00000000
   12 C                    6.0000     3.16914471     3.55560022     0.00000000
   13 C                    6.0000     1.83392153     3.93472122     0.00000000
   14 S                   16.0000     1.76183550     5.69038701     0.00000000
   15 C                    6.0000     3.48078091     5.85174526     0.00000000
   16 C                    6.0000     4.09381029     4.63028475     0.00000000
   17 H                    1.0000     3.50137264     2.52640283     0.00000000
   18 C                    6.0000    -1.65646288     4.28951707     0.00000000
   19 C                    6.0000    -3.03910419     4.14334056     0.00000000
   20 C                    6.0000    -3.76616761     5.35807405     0.00000000
   21 C                    6.0000    -2.95269355     6.45736591     0.00000000
   22 S                   16.0000    -1.28445977     6.01068531     0.00000000
   23 H                    1.0000    -3.53290740     3.17887528     0.00000000
   24 H                    1.0000    -4.84947296     5.40871213     0.00000000
   25 H                    1.0000    -3.22500311     7.50426143     0.00000000
   26 C                    6.0000     2.95269355    -6.45736591     0.00000000
   27 S                   16.0000     1.28445977    -6.01068531     0.00000000
   28 C                    6.0000     1.65646288    -4.28951707     0.00000000
   29 C                    6.0000     3.03910419    -4.14334056     0.00000000
   30 C                    6.0000     3.76616761    -5.35807405     0.00000000
   31 H                    1.0000     3.53290740    -3.17887528     0.00000000
   32 C                    6.0000    -3.48078091    -5.85174526     0.00000000
   33 C                    6.0000    -4.09381029    -4.63028475     0.00000000
   34 C                    6.0000    -3.16914471    -3.55560022     0.00000000
   35 C                    6.0000    -1.83392153    -3.93472122     0.00000000
   36 S                   16.0000    -1.76183550    -5.69038701     0.00000000
   37 H                    1.0000    -3.92713871    -6.83704645     0.00000000
   38 H                    1.0000    -5.16994513    -4.49502590     0.00000000
   39 H                    1.0000    -3.50137264    -2.52640283     0.00000000
   40 H                    1.0000     5.16994513     4.49502590     0.00000000
   41 H                    1.0000     3.92713871     6.83704645     0.00000000
   42 H                    1.0000     2.05307361     1.24734313     0.00000000
   43 H                    1.0000     4.84947296    -5.40871213     0.00000000
   44 H                    1.0000     3.22500311    -7.50426143     0.00000000

         Total DFT energy =    -3312.032381221632

                       DFT Final Molecular Orbital Analysis
                       ------------------------------------

 Vector   54  Occ=2.000000D+00  E=-5.926613D+00  Symmetry=au

 Vector  132  Occ=0.000000D+00  E= 1.626127D-04  Symmetry=au

 Vector  133  Occ=0.000000D+00  E= 4.331009D-03  Symmetry=ag

 Vector  134  Occ=0.000000D+00  E= 5.667678D-03  Symmetry=bu

 Vector  135  Occ=0.000000D+00  E= 1.427724D-02  Symmetry=ag

 Vector  136  Occ=0.000000D+00  E= 1.977355D-02  Symmetry=bu

 Vector  137  Occ=0.000000D+00  E= 4.263380D-02  Symmetry=bg

 Vector  138  Occ=0.000000D+00  E= 4.328164D-02  Symmetry=bu

 Vector  139  Occ=0.000000D+00  E= 5.078723D-02  Symmetry=au

 Vector  140  Occ=0.000000D+00  E= 5.566988D-02  Symmetry=ag

 Vector  141  Occ=0.000000D+00  E= 6.279659D-02  Symmetry=bg

 Vector  142  Occ=0.000000D+00  E= 6.908069D-02  Symmetry=bu

 Vector  143  Occ=0.000000D+00  E= 7.554821D-02  Symmetry=au

 Vector  144  Occ=0.000000D+00  E= 8.268336D-02  Symmetry=ag

 Vector  145  Occ=0.000000D+00  E= 8.622831D-02  Symmetry=bg

 Vector  146  Occ=0.000000D+00  E= 9.126378D-02  Symmetry=ag

 Vector  147  Occ=0.000000D+00  E= 9.215234D-02  Symmetry=bu

 Vector  148  Occ=0.000000D+00  E= 1.044384D-01  Symmetry=bu

 Vector  149  Occ=0.000000D+00  E= 1.063767D-01  Symmetry=ag

 Vector  150  Occ=0.000000D+00  E= 1.136017D-01  Symmetry=ag

 Vector  151  Occ=0.000000D+00  E= 1.179815D-01  Symmetry=bu

 Vector  152  Occ=0.000000D+00  E= 1.250681D-01  Symmetry=bu

 Vector  153  Occ=0.000000D+00  E= 1.272294D-01  Symmetry=au

 Vector  154  Occ=0.000000D+00  E= 1.282511D-01  Symmetry=bg

 Vector  155  Occ=0.000000D+00  E= 1.307144D-01  Symmetry=ag

 Vector  156  Occ=0.000000D+00  E= 1.405920D-01  Symmetry=bu

 Vector  157  Occ=0.000000D+00  E= 1.549943D-01  Symmetry=ag

 Vector  158  Occ=0.000000D+00  E= 1.662887D-01  Symmetry=bu

 Vector  159  Occ=0.000000D+00  E= 1.668176D-01  Symmetry=ag

 Vector  160  Occ=0.000000D+00  E= 1.706186D-01  Symmetry=bu

 Vector  161  Occ=0.000000D+00  E= 1.713806D-01  Symmetry=ag

 Vector  162  Occ=0.000000D+00  E= 1.846261D-01  Symmetry=bu

 Vector  163  Occ=0.000000D+00  E= 1.953951D-01  Symmetry=bu

 Vector  164  Occ=0.000000D+00  E= 2.003500D-01  Symmetry=ag

 Vector  165  Occ=0.000000D+00  E= 2.075954D-01  Symmetry=bu

 Vector  166  Occ=0.000000D+00  E= 2.105176D-01  Symmetry=ag

 Vector  167  Occ=0.000000D+00  E= 2.324026D-01  Symmetry=bu

 Vector  168  Occ=0.000000D+00  E= 2.332200D-01  Symmetry=ag

 Vector  169  Occ=0.000000D+00  E= 2.408417D-01  Symmetry=ag

 Vector  170  Occ=0.000000D+00  E= 2.457768D-01  Symmetry=bu

 Vector  171  Occ=0.000000D+00  E= 2.532133D-01  Symmetry=ag

 Vector  172  Occ=0.000000D+00  E= 2.610558D-01  Symmetry=bu

 Vector  173  Occ=0.000000D+00  E= 2.621066D-01  Symmetry=ag

 Vector  174  Occ=0.000000D+00  E= 2.683029D-01  Symmetry=bu

 Vector  175  Occ=0.000000D+00  E= 2.754302D-01  Symmetry=ag

 Vector  176  Occ=0.000000D+00  E= 2.851424D-01  Symmetry=bu

 Vector  177  Occ=0.000000D+00  E= 2.859541D-01  Symmetry=ag

 Vector  178  Occ=0.000000D+00  E= 2.896477D-01  Symmetry=bu

 Vector  179  Occ=0.000000D+00  E= 2.961671D-01  Symmetry=bu

 Vector  180  Occ=0.000000D+00  E= 3.026509D-01  Symmetry=ag

 Vector  181  Occ=0.000000D+00  E= 3.239760D-01  Symmetry=ag

 Vector  182  Occ=0.000000D+00  E= 3.276127D-01  Symmetry=au

 Vector  183  Occ=0.000000D+00  E= 3.277229D-01  Symmetry=bg

 Vector  184  Occ=0.000000D+00  E= 3.288225D-01  Symmetry=bu

 Vector  185  Occ=0.000000D+00  E= 3.395205D-01  Symmetry=bu

 Vector  186  Occ=0.000000D+00  E= 3.515651D-01  Symmetry=ag

 Vector  187  Occ=0.000000D+00  E= 3.586382D-01  Symmetry=bu

 Vector  188  Occ=0.000000D+00  E= 3.605701D-01  Symmetry=au

 Vector  189  Occ=0.000000D+00  E= 3.617458D-01  Symmetry=bg

 Vector  190  Occ=0.000000D+00  E= 3.648925D-01  Symmetry=ag

 Vector  191  Occ=0.000000D+00  E= 3.690106D-01  Symmetry=ag

 Vector  192  Occ=0.000000D+00  E= 3.836232D-01  Symmetry=bu

 Vector  193  Occ=0.000000D+00  E= 3.878260D-01  Symmetry=ag

 Vector  194  Occ=0.000000D+00  E= 4.161488D-01  Symmetry=bu

 Vector  195  Occ=0.000000D+00  E= 4.198731D-01  Symmetry=bg

 Vector  196  Occ=0.000000D+00  E= 4.198916D-01  Symmetry=au

 Vector  197  Occ=0.000000D+00  E= 4.219184D-01  Symmetry=ag

 Vector  198  Occ=0.000000D+00  E= 4.250840D-01  Symmetry=ag

 Vector  199  Occ=0.000000D+00  E= 4.279735D-01  Symmetry=bu

 Vector  200  Occ=0.000000D+00  E= 4.348621D-01  Symmetry=bu

 Vector  201  Occ=0.000000D+00  E= 4.465519D-01  Symmetry=ag

 Vector  202  Occ=0.000000D+00  E= 4.573994D-01  Symmetry=bu

 Vector  203  Occ=0.000000D+00  E= 4.637721D-01  Symmetry=ag

 Vector  204  Occ=0.000000D+00  E= 4.658200D-01  Symmetry=bu

 Vector  205  Occ=0.000000D+00  E= 4.704988D-01  Symmetry=bu

 Vector  206  Occ=0.000000D+00  E= 4.827317D-01  Symmetry=ag

 Vector  207  Occ=0.000000D+00  E= 4.878980D-01  Symmetry=bu

 Vector  208  Occ=0.000000D+00  E= 4.913803D-01  Symmetry=ag

 Vector  209  Occ=0.000000D+00  E= 4.949507D-01  Symmetry=bu

 Vector  210  Occ=0.000000D+00  E= 4.995356D-01  Symmetry=ag

 Vector  211  Occ=0.000000D+00  E= 5.027653D-01  Symmetry=ag

     Multipole analysis of the density
     ---------------------------------

     L   x y z        total         alpha         beta         nuclear
     -   - - -        -----         -----         ----         -------
     0   0 0 0     -0.000000   -127.000000   -127.000000    254.000000

     1   1 0 0      0.000000      0.000000      0.000000     -0.000000
     1   0 1 0      0.000000      0.000000      0.000000     -0.000000
     1   0 0 1      0.000000      0.000000      0.000000      0.000000

     2   2 0 0   -133.188178  -2541.702713  -2541.702713   4950.217248
     2   1 1 0     -0.924084     -0.162621     -0.162621     -0.598842
     2   1 0 1     -0.000000     -0.000000     -0.000000      0.000000
     2   0 2 0   -136.437008  -9280.472871  -9280.472871  18424.508734
     2   0 1 1      0.000000      0.000000      0.000000      0.000000

  Root   1 singlet bu             0.107452119 a.u.                2.9239 eV
     Dipole Oscillator Strength                         1.05188
  Root   2 singlet ag             0.113154368 a.u.                3.0791 eV
     Dipole Oscillator Strength                         0.00000
  Root   3 singlet ag             0.130760286 a.u.                3.5582 eV
     Dipole Oscillator Strength                         0.00000
  Root   4 singlet bu             0.132297399 a.u.                3.6000 eV
     Dipole Oscillator Strength                         0.03805
  Root   5 singlet bu             0.140555916 a.u.                3.8247 eV
     Dipole Oscillator Strength                         0.24635
  Root   6 singlet ag             0.140849615 a.u.                3.8327 eV
     Dipole Oscillator Strength                         0.00000
  Root   7 singlet bu             0.149615147 a.u.                4.0712 eV
     Dipole Oscillator Strength                         0.89477
  Root   8 singlet ag             0.153186662 a.u.                4.1684 eV
     Dipole Oscillator Strength                         0.00000
  Root   9 singlet bu             0.156579809 a.u.                4.2608 eV
     Dipole Oscillator Strength                         0.28672
  Root  10 singlet ag             0.158358899 a.u.                4.3092 eV
     Dipole Oscillator Strength                         0.00000
     Root    1 to root    1
     Root    1 to root    2
     Root    1 to root    3
     Root    1 to root    4
     Root    1 to root    5
     Root    1 to root    6
     Root    1 to root    7
     Root    1 to root    8
     Root    1 to root    9
     Root    1 to root   10
     Root    2 to root    1
     Root    2 to root    2
     Root    2 to root    3
     Root    2 to root    4
     Root    2 to root    5
     Root    2 to root    6
     Root    2 to root    7
     Root    2 to root    8
     Root    2 to root    9
     Root    2 to root   10
     Root    3 to root    1
     Root    3 to root    2
     Root    3 to root    3
     Root    3 to root    4
     Root    3 to root    5
     Root    3 to root    6
     Root    3 to root    7
     Root    3 to root    8
     Root    3 to root    9
     Root    3 to root   10
     Root    4 to root    1
     Root    4 to root    2
     Root    4 to root    3
     Root    4 to root    4
     Root    4 to root    5
     Root    4 to root    6
     Root    4 to root    7
     Root    4 to root    8
     Root    4 to root    9
     Root    4 to root   10
     Root    5 to root    1
     Root    5 to root    2
     Root    5 to root    3
     Root    5 to root    4
     Root    5 to root    5
     Root    5 to root    6
     Root    5 to root    7
     Root    5 to root    8
     Root    5 to root    9
     Root    5 to root   10
     Root    6 to root    1
     Root    6 to root    2
     Root    6 to root    3
     Root    6 to root    4
     Root    6 to root    5
     Root    6 to root    6
     Root    6 to root    7
     Root    6 to root    8
     Root    6 to root    9
     Root    6 to root   10
     Root    7 to root    1
     Root    7 to root    2
     Root    7 to root    3
     Root    7 to root    4
     Root    7 to root    5
     Root    7 to root    6
     Root    7 to root    7
     Root    7 to root    8
     Root    7 to root    9
     Root    7 to root   10
     Root    8 to root    1
     Root    8 to root    2
     Root    8 to root    3
     Root    8 to root    4
     Root    8 to root    5
     Root    8 to root    6
     Root    8 to root    7
     Root    8 to root    8
     Root    8 to root    9
     Root    8 to root   10
     Root    9 to root    1
     Root    9 to root    2
     Root    9 to root    3
     Root    9 to root    4
     Root    9 to root    5
     Root    9 to root    6
     Root    9 to root    7
     Root    9 to root    8
     Root    9 to root    9
     Root    9 to root   10
     Root   10 to root    1
     Root   10 to root    2
     Root   10 to root    3
     Root   10 to root    4
     Root   10 to root    5
     Root   10 to root    6
     Root   10 to root    7
     Root   10 to root    8
     Root   10 to root    9
     Root   10 to root   10
 Total times  cpu:      545.2s     wall:     1871.2s
